ITEM: TIMESTEP
100
ITEM: NUMBER OF ATOMS
50
ITEM: BOX BOUNDS pp pp pp
-2.0000000000000000e+01 2.0000000000000000e+01
-2.0000000000000000e+01 2.0000000000000000e+01
-5.0000000000000000e-01 5.0000000000000000e-01
ITEM: ATOMS id type xs ys zs
21 1 0.551835 0.0106845 0.5
46 1 0.0838561 0.0417565 0.5
15 1 0.706063 0.0320187 0.5
37 1 0.231136 0.0871609 0.5
2 1 0.93756 0.0965424 0.5
20 1 0.34769 0.146521 0.5
50 1 0.762882 0.249102 0.5
8 1 0.791511 0.23991 0.5
45 1 0.643203 0.297357 0.5
31 1 0.617395 0.327584 0.5
36 1 0.346057 0.3275 0.5
26 1 0.579089 0.339326 0.5
7 1 0.799906 0.345865 0.5
38 1 0.258193 0.385188 0.5
11 1 0.0634044 0.425175 0.5
41 1 0.260801 0.454459 0.5
5 1 0.155178 0.515413 0.5
49 1 0.197301 0.53152 0.5
3 1 0.310182 0.510496 0.5
17 1 0.0444522 0.535722 0.5
19 1 0.0623298 0.573996 0.5
13 1 0.0934182 0.572677 0.5
4 1 0.290293 0.536388 0.5
24 1 0.440526 0.54672 0.5
32 1 0.544158 0.549573 0.5
14 1 0.701339 0.541021 0.5
28 1 0.73754 0.539714 0.5
27 1 0.71887 0.56399 0.5
1 1 0.986444 0.598336 0.5
18 1 0.0275515 0.626197 0.5
48 1 0.655421 0.622501 0.5
43 1 0.901524 0.6288 0.5
29 1 0.982648 0.624084 0.5
22 1 0.996476 0.652387 0.5
40 1 0.241931 0.676786 0.5
16 1 0.695856 0.730333 0.5
39 1 0.513186 0.771841 0.5
9 1 0.840267 0.777548 0.5
12 1 0.411682 0.809785 0.5
35 1 0.612522 0.813846 0.5
44 1 0.852426 0.81905 0.5
33 1 0.882113 0.855455 0.5
47 1 0.937711 0.889337 0.5
23 1 0.19118 0.914148 0.5
10 1 0.735598 0.898226 0.5
6 1 0.764181 0.914842 0.5
25 1 0.201735 0.945981 0.5
42 1 0.322236 0.958634 0.5
30 1 0.679963 0.952667 0.5
34 1 0.983308 0.972984 0.5
ITEM: TIMESTEP
200
ITEM: NUMBER OF ATOMS
50
ITEM: BOX BOUNDS pp pp pp
-2.0000000000000000e+01 2.0000000000000000e+01
-2.0000000000000000e+01 2.0000000000000000e+01
-5.0000000000000000e-01 5.0000000000000000e-01
ITEM: ATOMS id type xs ys zs
21 1 0.551183 0.0270107 0.5
46 1 0.0862118 0.059422 0.5
15 1 0.715856 0.0228689 0.5
37 1 0.251583 0.0943362 0.5
2 1 0.90748 0.117397 0.5
20 1 0.331997 0.141712 0.5
50 1 0.778622 0.235736 0.5
8 1 0.812031 0.241741 0.5
45 1 0.638416 0.302917 0.5
31 1 0.63347 0.336943 0.5
36 1 0.370005 0.343173 0.5
26 1 0.591293 0.327771 0.5
7 1 0.783964 0.349152 0.5
38 1 0.233819 0.36479 0.5
11 1 0.0638745 0.420466 0.5
41 1 0.2651 0.455339 0.5
5 1 0.144179 0.511931 0.5
49 1 0.201742 0.547235 0.5
3 1 0.318022 0.490151 0.5
17 1 0.0278556 0.551633 0.5
19 1 0.0601613 0.563271 0.5
13 1 0.109946 0.575229 0.5
4 1 0.299973 0.521397 0.5
24 1 0.432228 0.569384 0.5
32 1 0.545507 0.543636 0.5
14 1 0.705878 0.545051 0.5
28 1 0.73211 0.537204 0.5
27 1 0.734025 0.573869 0.5
1 1 0.989011 0.607371 0.5
18 1 0.0289592 0.637718 0.5
48 1 0.663567 0.633768 0.5
43 1 0.907782 0.641063 0.5
29 1 0.976437 0.633181 0.5
22 1 0.00737793 0.653953 0.5
40 1 0.234408 0.671454 0.5
16 1 0.695921 0.724498 0.5
39 1 0.511044 0.756197 0.5
9 1 0.840713 0.782427 0.5
12 1 0.392567 0.80946 0.5
35 1 0.62462 0.80867 0.5
44 1 0.861444 0.818508 0.5
33 1 0.872284 0.866865 0.5
47 1 0.932341 0.880054 0.5
23 1 0.198663 0.91435 0.5
10 1 0.730416 0.882112 0.5
6 1 0.755112 0.919358 0.5
25 1 0.201657 0.94071 0.5
42 1 0.299694 0.926867 0.5
30 1 0.668506 0.963058 0.5
34 1 0.997499 0.980061 0.5
ITEM: TIMESTEP
300
ITEM: NUMBER OF ATOMS
50
ITEM: BOX BOUNDS pp pp pp
-2.0000000000000000e+01 2.0000000000000000e+01
-2.0000000000000000e+01 2.0000000000000000e+01
-5.0000000000000000e-01 5.0000000000000000e-01
ITEM: ATOMS id type xs ys zs
21 1 0.561718 0.01238 0.5
46 1 0.0746217 0.0763339 0.5
15 1 0.716331 0.0062561 0.5
37 1 0.246356 0.105213 0.5
2 1 0.913896 0.13057 0.5
20 1 0.345196 0.127753 0.5
50 1 0.783953 0.228757 0.5
8 1 0.806321 0.254104 0.5
45 1 0.625607 0.298699 0.5
31 1 0.625745 0.332786 0.5
36 1 0.355117 0.332959 0.5
26 1 0.598214 0.331819 0.5
7 1 0.784676 0.33237 0.5
38 1 0.210887 0.362828 0.5
11 1 0.0686324 0.4147 0.5
41 1 0.287516 0.454136 0.5
5 1 0.131969 0.515356 0.5
49 1 0.194913 0.556277 0.5
3 1 0.303201 0.49368 0.5
17 1 0.0311486 0.577868 0.5
19 1 0.0598568 0.570727 0.5
13 1 0.103333 0.586313 0.5
4 1 0.287224 0.519628 0.5
24 1 0.428915 0.585174 0.5
32 1 0.544811 0.57151 0.5
14 1 0.699488 0.528283 0.5
28 1 0.737941 0.540337 0.5
27 1 0.739323 0.576156 0.5
1 1 0.989528 0.623732 0.5
18 1 0.0242923 0.634486 0.5
48 1 0.662671 0.625842 0.5
43 1 0.921458 0.637831 0.5
29 1 0.969319 0.655428 0.5
22 1 0.995553 0.660495 0.5
40 1 0.239909 0.658071 0.5
16 1 0.681407 0.722318 0.5
39 1 0.506368 0.763073 0.5
9 1 0.838201 0.796179 0.5
12 1 0.386265 0.819286 0.5
35 1 0.634168 0.805082 0.5
44 1 0.846739 0.821478 0.5
33 1 0.872659 0.864541 0.5
47 1 0.926955 0.881232 0.5
23 1 0.196972 0.904257 0.5
10 1 0.732022 0.877109 0.5
6 1 0.762148 0.898377 0.5
25 1 0.212861 0.947432 0.5
42 1 0.294412 0.920205 0.5
30 1 0.662173 0.964463 0.5
34 1 0.9966 0.976665 0.5
ITEM: TIMESTEP
400
ITEM: NUMBER OF ATOMS
50
ITEM: BOX BOUNDS pp pp pp
-2.0000000000000000e+01 2.0000000000000000e+01
-2.0000000000000000e+01 2.0000000000000000e+01
-5.0000000000000000e-01 5.0000000000000000e-01
ITEM: ATOMS id type xs ys zs
21 1 0.577023 0.0165258 0.5
46 1 0.0957813 0.0841452 0.5
15 1 0.713541 0.997845 0.5
37 1 0.239272 0.0887236 0.5
2 1 0.927584 0.126837 0.5
20 1 0.326491 0.123091 0.5
50 1 0.795848 0.227999 0.5
8 1 0.814586 0.260065 0.5
45 1 0.629651 0.295503 0.5
31 1 0.637801 0.324214 0.5
36 1 0.358949 0.326573 0.5
26 1 0.611836 0.334964 0.5
7 1 0.793874 0.328922 0.5
38 1 0.209853 0.363092 0.5
11 1 0.0797717 0.410549 0.5
41 1 0.298206 0.448543 0.5
5 1 0.135927 0.504137 0.5
49 1 0.183375 0.553253 0.5
3 1 0.276494 0.480205 0.5
17 1 0.0402784 0.575394 0.5
19 1 0.0683372 0.587307 0.5
13 1 0.101472 0.58918 0.5
4 1 0.282715 0.530627 0.5
24 1 0.439988 0.570834 0.5
32 1 0.548673 0.591106 0.5
14 1 0.691627 0.504614 0.5
28 1 0.719843 0.556844 0.5
27 1 0.735017 0.578996 0.5
1 1 0.97413 0.639713 0.5
18 1 0.021994 0.633127 0.5
48 1 0.661677 0.628605 0.5
43 1 0.920658 0.645778 0.5
29 1 0.945997 0.649516 0.5
22 1 0.981697 0.666703 0.5
40 1 0.240707 0.667457 0.5
16 1 0.665112 0.744505 0.5
39 1 0.516333 0.753886 0.5
9 1 0.833825 0.776182 0.5
12 1 0.393843 0.81535 0.5
35 1 0.613764 0.796149 0.5
44 1 0.859267 0.821231 0.5
33 1 0.855305 0.85269 0.5
47 1 0.914638 0.85764 0.5
23 1 0.195536 0.889154 0.5
10 1 0.739318 0.875805 0.5
6 1 0.754373 0.89867 0.5
25 1 0.224928 0.929732 0.5
42 1 0.314592 0.921317 0.5
30 1 0.673982 0.952211 0.5
34 1 0.00573984 0.999187 0.5
ITEM: TIMESTEP
500
ITEM: NUMBER OF ATOMS
50
ITEM: BOX BOUNDS pp pp pp
-2.0000000000000000e+01 2.0000000000000000e+01
-2.0000000000000000e+01 2.0000000000000000e+01
-5.0000000000000000e-01 5.0000000000000000e-01
ITEM: ATOMS id type xs ys zs
21 1 0.588543 0.0341662 0.5
46 1 0.085659 0.0762041 0.5
15 1 0.710165 0.992557 0.5
37 1 0.219705 0.0871845 0.5
2 1 0.913826 0.1344 0.5
20 1 0.33615 0.119777 0.5
50 1 0.797651 0.232842 0.5
8 1 0.814299 0.26495 0.5
45 1 0.622729 0.274692 0.5
31 1 0.638227 0.35138 0.5
36 1 0.3448 0.305447 0.5
26 1 0.605496 0.342855 0.5
7 1 0.783098 0.331204 0.5
38 1 0.193095 0.346079 0.5
11 1 0.0789893 0.418413 0.5
41 1 0.300684 0.450443 0.5
5 1 0.143425 0.494155 0.5
49 1 0.168719 0.569263 0.5
3 1 0.2759 0.48341 0.5
17 1 0.0323989 0.569078 0.5
19 1 0.0540475 0.583096 0.5
13 1 0.0959285 0.593887 0.5
4 1 0.281244 0.519781 0.5
24 1 0.449132 0.578544 0.5
32 1 0.555036 0.593471 0.5
14 1 0.678177 0.51363 0.5
28 1 0.718435 0.566686 0.5
27 1 0.747323 0.599004 0.5
1 1 0.981228 0.627513 0.5
18 1 0.0260856 0.623535 0.5
48 1 0.673979 0.633195 0.5
43 1 0.92077 0.650416 0.5
29 1 0.947983 0.640146 0.5
22 1 0.983175 0.665932 0.5
40 1 0.240791 0.661115 0.5
16 1 0.66139 0.734721 0.5
39 1 0.51168 0.745703 0.5
9 1 0.84785 0.763557 0.5
12 1 0.40578 0.815986 0.5
35 1 0.628002 0.790121 0.5
44 1 0.841349 0.825495 0.5
33 1 0.856818 0.849325 0.5
47 1 0.902161 0.860869 0.5
23 1 0.190505 0.882403 0.5
10 1 0.734955 0.887577 0.5
6 1 0.766531 0.894851 0.5
25 1 0.233348 0.925409 0.5
42 1 0.307089 0.902125 0.5
30 1 0.674218 0.946613 0.5
34 1 0.0108206 0.988771 0.5
ITEM: TIMESTEP
600
ITEM: NUMBER OF ATOMS
50
ITEM: BOX BOUNDS pp pp pp
-2.0000000000000000e+01 2.0000000000000000e+01
-2.0000000000000000e+01 2.0000000000000000e+01
-5.0000000000000000e-01 5.0000000000000000e-01
ITEM: ATOMS id type xs ys zs
21 1 0.592246 0.0226009 0.5
46 1 0.069501 0.0718739 0.5
15 1 0.706093 0.98881 0.5
37 1 0.216078 0.0828397 0.5
2 1 0.913261 0.148532 0.5
20 1 0.340677 0.147321 0.5
50 1 0.798223 0.228443 0.5
8 1 0.815786 0.258426 0.5
45 1 0.609988 0.287493 0.5
31 1 0.639246 0.355284 0.5
36 1 0.349346 0.322756 0.5
26 1 0.6138 0.36228 0.5
7 1 0.784192 0.338895 0.5
38 1 0.201277 0.355341 0.5
11 1 0.0816213 0.407033 0.5
41 1 0.295299 0.450876 0.5
5 1 0.149321 0.500607 0.5
49 1 0.185348 0.580992 0.5
3 1 0.276593 0.482439 0.5
17 1 0.0348016 0.56176 0.5
19 1 0.0536339 0.579784 0.5
13 1 0.0751112 0.596439 0.5
4 1 0.296883 0.516676 0.5
24 1 0.449212 0.582286 0.5
32 1 0.535788 0.583734 0.5
14 1 0.67696 0.505734 0.5
28 1 0.709249 0.552696 0.5
27 1 0.756456 0.574617 0.5
1 1 0.982627 0.638924 0.5
18 1 0.0243733 0.633191 0.5
48 1 0.682535 0.617699 0.5
43 1 0.928288 0.650184 0.5
29 1 0.954991 0.647432 0.5
22 1 0.994305 0.665017 0.5
40 1 0.246947 0.659371 0.5
16 1 0.655019 0.744288 0.5
39 1 0.505612 0.729666 0.5
9 1 0.849119 0.757725 0.5
12 1 0.397007 0.807639 0.5
35 1 0.632022 0.791949 0.5
44 1 0.826845 0.822379 0.5
33 1 0.856957 0.84692 0.5
47 1 0.878713 0.857781 0.5
23 1 0.168316 0.887009 0.5
10 1 0.737076 0.875316 0.5
6 1 0.763606 0.902136 0.5
25 1 0.242248 0.935776 0.5
42 1 0.303021 0.907377 0.5
30 1 0.669099 0.938659 0.5
34 1 0.0177568 0.980197 0.5
ITEM: TIMESTEP
700
ITEM: NUMBER OF ATOMS
50
ITEM: BOX BOUNDS pp pp pp
-2.0000000000000000e+01 2.0000000000000000e+01
-2.0000000000000000e+01 2.0000000000000000e+01
-5.0000000000000000e-01 5.0000000000000000e-01
ITEM: ATOMS id type xs ys zs
21 1 0.611022 0.0254146 0.5
46 1 0.0867633 0.0539885 0.5
15 1 0.708572 0.980244 0.5
37 1 0.228507 0.074855 0.5
2 1 0.916134 0.143432 0.5
20 1 0.342794 0.140498 0.5
50 1 0.790254 0.22737 0.5
8 1 0.810933 0.252291 0.5
45 1 0.617948 0.278912 0.5
31 1 0.648145 0.351061 0.5
36 1 0.342901 0.327302 0.5
26 1 0.615949 0.370347 0.5
7 1 0.77113 0.35163 0.5
38 1 0.19319 0.380191 0.5
11 1 0.0795316 0.414127 0.5
41 1 0.287252 0.440977 0.5
5 1 0.151002 0.48727 0.5
49 1 0.187949 0.593365 0.5
3 1 0.282726 0.469743 0.5
17 1 0.0377658 0.547379 0.5
19 1 0.0531786 0.579292 0.5
13 1 0.0800077 0.588123 0.5
4 1 0.280421 0.529256 0.5
24 1 0.445708 0.576164 0.5
32 1 0.551626 0.593032 0.5
14 1 0.670875 0.514118 0.5
28 1 0.701163 0.540585 0.5
27 1 0.749624 0.572237 0.5
1 1 0.99967 0.640177 0.5
18 1 0.0299273 0.634888 0.5
48 1 0.67226 0.605225 0.5
43 1 0.92459 0.645409 0.5
29 1 0.964333 0.635296 0.5
22 1 0.0213094 0.668015 0.5
40 1 0.248269 0.645752 0.5
16 1 0.651783 0.74796 0.5
39 1 0.505629 0.726283 0.5
9 1 0.832712 0.762698 0.5
12 1 0.416249 0.78976 0.5
35 1 0.619039 0.802014 0.5
44 1 0.831231 0.824179 0.5
33 1 0.865012 0.832457 0.5
47 1 0.880482 0.871277 0.5
23 1 0.165372 0.894187 0.5
10 1 0.752569 0.875303 0.5
6 1 0.746192 0.903305 0.5
25 1 0.256847 0.961075 0.5
42 1 0.291288 0.926517 0.5
30 1 0.689314 0.930013 0.5
34 1 0.00237312 0.985151 0.5
ITEM: TIMESTEP
800
ITEM: NUMBER OF ATOMS
50
ITEM: BOX BOUNDS pp pp pp
-2.0000000000000000e+01 2.0000000000000000e+01
-2.0000000000000000e+01 2.0000000000000000e+01
-5.0000000000000000e-01 5.0000000000000000e-01
ITEM: ATOMS id type xs ys zs
21 1 0.614049 0.0294078 0.5
46 1 0.103878 0.0503128 0.5
15 1 0.707247 0.977785 0.5
37 1 0.24451 0.0831874 0.5
2 1 0.912948 0.159669 0.5
20 1 0.33582 0.143663 0.5
50 1 0.779996 0.234034 0.5
8 1 0.804551 0.255601 0.5
45 1 0.633201 0.274148 0.5
31 1 0.651753 0.344958 0.5
36 1 0.342522 0.330157 0.5
26 1 0.615167 0.361867 0.5
7 1 0.768654 0.337918 0.5
38 1 0.177961 0.383898 0.5
11 1 0.0981 0.434641 0.5
41 1 0.279616 0.430865 0.5
5 1 0.150296 0.490708 0.5
49 1 0.196644 0.598134 0.5
3 1 0.299993 0.464357 0.5
17 1 0.0353395 0.552157 0.5
19 1 0.0538429 0.57077 0.5
13 1 0.0738283 0.593773 0.5
4 1 0.284242 0.507238 0.5
24 1 0.46237 0.584999 0.5
32 1 0.548489 0.583187 0.5
14 1 0.667203 0.525457 0.5
28 1 0.691378 0.53821 0.5
27 1 0.766533 0.576313 0.5
1 1 0.987679 0.641582 0.5
18 1 0.0276945 0.633443 0.5
48 1 0.677566 0.603476 0.5
43 1 0.920874 0.643197 0.5
29 1 0.959349 0.641209 0.5
22 1 0.0126454 0.65642 0.5
40 1 0.24779 0.666506 0.5
16 1 0.659924 0.744661 0.5
39 1 0.521538 0.71272 0.5
9 1 0.823075 0.778583 0.5
12 1 0.450443 0.784871 0.5
35 1 0.615894 0.782753 0.5
44 1 0.83936 0.829054 0.5
33 1 0.876173 0.84572 0.5
47 1 0.89486 0.865313 0.5
23 1 0.174382 0.890023 0.5
10 1 0.737628 0.877995 0.5
6 1 0.767958 0.881229 0.5
25 1 0.235523 0.959129 0.5
42 1 0.291737 0.920986 0.5
30 1 0.684679 0.935216 0.5
34 1 0.99523 0.99183 0.5
ITEM: TIMESTEP
900
ITEM: NUMBER OF ATOMS
50
ITEM: BOX BOUNDS pp pp pp
-2.0000000000000000e+01 2.0000000000000000e+01
-2.0000000000000000e+01 2.0000000000000000e+01
-5.0000000000000000e-01 5.0000000000000000e-01
ITEM: ATOMS id type xs ys zs
21 1 0.61401 0.0291675 0.5
46 1 0.0978711 0.0658965 0.5
15 1 0.716909 0.978633 0.5
37 1 0.237516 0.0706629 0.5
2 1 0.914222 0.152665 0.5
20 1 0.342935 0.136743 0.5
50 1 0.76488 0.232048 0.5
8 1 0.806309 0.236629 0.5
45 1 0.626165 0.284124 0.5
31 1 0.66895 0.354277 0.5
36 1 0.35707 0.323044 0.5
26 1 0.609437 0.354916 0.5
7 1 0.762606 0.3473 0.5
38 1 0.163219 0.39539 0.5
11 1 0.0870033 0.439669 0.5
41 1 0.297463 0.426244 0.5
5 1 0.160316 0.494322 0.5
49 1 0.191192 0.619032 0.5
3 1 0.31348 0.448721 0.5
17 1 0.03086 0.573331 0.5
19 1 0.0653216 0.574361 0.5
13 1 0.087281 0.610477 0.5
4 1 0.278145 0.48807 0.5
24 1 0.479056 0.590025 0.5
32 1 0.547344 0.566743 0.5
14 1 0.665913 0.524641 0.5
28 1 0.690059 0.530426 0.5
27 1 0.777013 0.548197 0.5
1 1 0.992308 0.63329 0.5
18 1 0.0217419 0.634526 0.5
48 1 0.675153 0.598885 0.5
43 1 0.931828 0.657161 0.5
29 1 0.970115 0.649159 0.5
22 1 0.0129534 0.658944 0.5
40 1 0.249854 0.663571 0.5
16 1 0.662124 0.751316 0.5
39 1 0.507683 0.714235 0.5
9 1 0.831406 0.782488 0.5
12 1 0.447371 0.780223 0.5
35 1 0.612859 0.79363 0.5
44 1 0.83226 0.819101 0.5
33 1 0.880054 0.845763 0.5
47 1 0.898678 0.877371 0.5
23 1 0.164548 0.910941 0.5
10 1 0.735391 0.883548 0.5
6 1 0.771574 0.874395 0.5
25 1 0.226043 0.961528 0.5
42 1 0.295897 0.92819 0.5
30 1 0.692899 0.93553 0.5
34 1 0.994385 0.991067 0.5
ITEM: TIMESTEP
1000
ITEM: NUMBER OF ATOMS
50
ITEM: BOX BOUNDS pp pp pp
-2.0000000000000000e+01 2.0000000000000000e+01
-2.0000000000000000e+01 2.0000000000000000e+01
-5.0000000000000000e-01 5.0000000000000000e-01
ITEM: ATOMS id type xs ys zs
21 1 0.60747 0.0331618 0.5
46 1 0.0820523 0.0564927 0.5
15 1 0.733819 0.965714 0.5
37 1 0.226785 0.0697636 0.5
2 1 0.922955 0.155862 0.5
20 1 0.323877 0.137852 0.5
50 1 0.774767 0.234144 0.5
8 1 0.79169 0.258625 0.5
45 1 0.614049 0.281245 0.5
31 1 0.664431 0.363563 0.5
36 1 0.369164 0.31048 0.5
26 1 0.619335 0.345558 0.5
7 1 0.774156 0.350114 0.5
38 1 0.146913 0.3862 0.5
11 1 0.0843025 0.42985 0.5
41 1 0.288285 0.417637 0.5
5 1 0.154458 0.499816 0.5
49 1 0.192451 0.621034 0.5
3 1 0.304379 0.442899 0.5
17 1 0.0299052 0.567989 0.5
19 1 0.0672414 0.577263 0.5
13 1 0.113907 0.620195 0.5
4 1 0.286582 0.46893 0.5
24 1 0.480979 0.605817 0.5
32 1 0.549027 0.561801 0.5
14 1 0.648096 0.516845 0.5
28 1 0.699544 0.519139 0.5
27 1 0.780691 0.530469 0.5
1 1 0.000627988 0.642739 0.5
18 1 0.021876 0.620024 0.5
48 1 0.675187 0.598233 0.5
43 1 0.945338 0.65857 0.5
29 1 0.971606 0.663667 0.5
22 1 0.0249854 0.655779 0.5
40 1 0.233669 0.659343 0.5
16 1 0.656289 0.736142 0.5
39 1 0.497158 0.726139 0.5
9 1 0.835767 0.762582 0.5
12 1 0.421559 0.797212 0.5
35 1 0.61388 0.811033 0.5
44 1 0.808024 0.822443 0.5
33 1 0.851553 0.860776 0.5
47 1 0.901819 0.872571 0.5
23 1 0.152113 0.915326 0.5
10 1 0.726067 0.895278 0.5
6 1 0.766165 0.86508 0.5
25 1 0.232124 0.972747 0.5
42 1 0.296338 0.923118 0.5
30 1 0.676973 0.934482 0.5
34 1 0.984834 0.994638 0.5
ITEM: TIMESTEP
1100
ITEM: NUMBER OF ATOMS
50
ITEM: BOX BOUNDS pp pp pp
-2.0000000000000000e+01 2.0000000000000000e+01
-2.0000000000000000e+01 2.0000000000000000e+01
-5.0000000000000000e-01 5.0000000000000000e-01
ITEM: ATOMS id type xs ys zs
21 1 0.618649 0.0442586 0.5
46 1 0.071022 0.0607705 0.5
37 1 0.23104 0.0596846 0.5
20 1 0.318878 0.133677 0.5
2 1 0.923826 0.145946 0.5
50 1 0.763952 0.232258 0.5
45 1 0.603502 0.259539 0.5
8 1 0.793356 0.25646 0.5
36 1 0.385187 0.316271 0.5
26 1 0.624212 0.342688 0.5
7 1 0.778338 0.338659 0.5
38 1 0.1222 0.387229 0.5
31 1 0.649458 0.355723 0.5
41 1 0.289744 0.407228 0.5
11 1 0.0863778 0.438479 0.5
3 1 0.319567 0.45034 0.5
4 1 0.275609 0.460194 0.5
5 1 0.148617 0.498459 0.5
14 1 0.657113 0.532817 0.5
28 1 0.701654 0.515054 0.5
27 1 0.762648 0.515469 0.5
17 1 0.0311657 0.555713 0.5
32 1 0.538676 0.553049 0.5
19 1 0.0740803 0.560729 0.5
24 1 0.464133 0.596992 0.5
48 1 0.66666 0.599159 0.5
1 1 0.99497 0.635569 0.5
18 1 0.0291697 0.614009 0.5
13 1 0.128579 0.612876 0.5
49 1 0.186954 0.630555 0.5
22 1 0.0219251 0.64854 0.5
40 1 0.219198 0.65829 0.5
43 1 0.939493 0.662014 0.5
29 1 0.974757 0.665724 0.5
39 1 0.49339 0.722636 0.5
16 1 0.670325 0.741674 0.5
9 1 0.84991 0.763326 0.5
12 1 0.418258 0.793733 0.5
35 1 0.615378 0.835402 0.5
44 1 0.798416 0.821836 0.5
6 1 0.774831 0.865728 0.5
33 1 0.843983 0.852876 0.5
47 1 0.905247 0.884039 0.5
23 1 0.147724 0.917353 0.5
42 1 0.253044 0.920201 0.5
10 1 0.723941 0.906294 0.5
30 1 0.665527 0.944263 0.5
25 1 0.218592 0.953725 0.5
15 1 0.735366 0.968096 0.5
34 1 0.972432 0.972973 0.5
ITEM: TIMESTEP
1200
ITEM: NUMBER OF ATOMS
50
ITEM: BOX BOUNDS pp pp pp
-2.0000000000000000e+01 2.0000000000000000e+01
-2.0000000000000000e+01 2.0000000000000000e+01
-5.0000000000000000e-01 5.0000000000000000e-01
ITEM: ATOMS id type xs ys zs
21 1 0.61121 0.0533756 0.5
46 1 0.0509135 0.0780791 0.5
37 1 0.235439 0.058293 0.5
20 1 0.320914 0.145402 0.5
2 1 0.924363 0.159989 0.5
50 1 0.7643 0.235219 0.5
45 1 0.594855 0.247874 0.5
8 1 0.785551 0.251033 0.5
36 1 0.399326 0.329141 0.5
26 1 0.622397 0.36042 0.5
7 1 0.789471 0.31911 0.5
38 1 0.118286 0.36886 0.5
31 1 0.65753 0.374602 0.5
41 1 0.283615 0.418401 0.5
11 1 0.0700365 0.416432 0.5
3 1 0.315804 0.436035 0.5
4 1 0.274478 0.453067 0.5
5 1 0.15914 0.482094 0.5
14 1 0.664379 0.529274 0.5
28 1 0.706642 0.527084 0.5
27 1 0.765857 0.509087 0.5
17 1 0.022438 0.553914 0.5
32 1 0.539828 0.547108 0.5
19 1 0.0787081 0.572851 0.5
24 1 0.471361 0.568996 0.5
48 1 0.679843 0.592639 0.5
1 1 0.996183 0.641261 0.5
18 1 0.038732 0.613189 0.5
13 1 0.159986 0.633305 0.5
49 1 0.215683 0.632778 0.5
22 1 0.030326 0.644407 0.5
40 1 0.2182 0.665767 0.5
43 1 0.93827 0.652118 0.5
29 1 0.990153 0.669587 0.5
39 1 0.495828 0.732478 0.5
16 1 0.673483 0.737781 0.5
9 1 0.868542 0.763907 0.5
12 1 0.406874 0.780933 0.5
35 1 0.598024 0.836899 0.5
44 1 0.790193 0.827657 0.5
6 1 0.781732 0.869562 0.5
33 1 0.847601 0.838766 0.5
47 1 0.905475 0.897032 0.5
23 1 0.136384 0.908947 0.5
42 1 0.261448 0.911932 0.5
10 1 0.713166 0.887092 0.5
30 1 0.642724 0.930563 0.5
25 1 0.2179 0.944333 0.5
15 1 0.732826 0.976259 0.5
34 1 0.975901 0.981963 0.5
ITEM: TIMESTEP
1300
ITEM: NUMBER OF ATOMS
50
ITEM: BOX BOUNDS pp pp pp
-2.0000000000000000e+01 2.0000000000000000e+01
-2.0000000000000000e+01 2.0000000000000000e+01
-5.0000000000000000e-01 5.0000000000000000e-01
ITEM: ATOMS id type xs ys zs
21 1 0.615434 0.0529962 0.5
46 1 0.0541761 0.0765997 0.5
37 1 0.227931 0.0513561 0.5
20 1 0.324415 0.14685 0.5
2 1 0.91907 0.158876 0.5
50 1 0.772309 0.220002 0.5
45 1 0.608971 0.260646 0.5
8 1 0.787535 0.257738 0.5
36 1 0.393193 0.318586 0.5
26 1 0.632889 0.350819 0.5
7 1 0.775602 0.323936 0.5
38 1 0.107059 0.367968 0.5
31 1 0.659656 0.381367 0.5
41 1 0.284977 0.429308 0.5
11 1 0.0635984 0.433087 0.5
3 1 0.312446 0.437522 0.5
4 1 0.284501 0.457703 0.5
5 1 0.174966 0.486619 0.5
14 1 0.645756 0.534399 0.5
28 1 0.696366 0.531122 0.5
27 1 0.754785 0.529864 0.5
17 1 0.0350366 0.538548 0.5
32 1 0.535866 0.556049 0.5
19 1 0.0762717 0.576635 0.5
24 1 0.464403 0.583281 0.5
48 1 0.685965 0.587016 0.5
1 1 0.998303 0.644666 0.5
18 1 0.0381034 0.619289 0.5
13 1 0.175566 0.631617 0.5
49 1 0.242568 0.647885 0.5
22 1 0.0249695 0.658373 0.5
40 1 0.22396 0.668125 0.5
43 1 0.946604 0.652885 0.5
29 1 0.988558 0.671531 0.5
39 1 0.485042 0.75065 0.5
16 1 0.682811 0.734398 0.5
9 1 0.848558 0.771564 0.5
12 1 0.424418 0.777564 0.5
35 1 0.596368 0.831024 0.5
44 1 0.797458 0.829862 0.5
6 1 0.773027 0.874478 0.5
33 1 0.831956 0.833889 0.5
47 1 0.904933 0.895577 0.5
23 1 0.129868 0.902651 0.5
42 1 0.241984 0.901987 0.5
10 1 0.709631 0.903531 0.5
30 1 0.627734 0.926607 0.5
25 1 0.2194 0.959008 0.5
15 1 0.720904 0.974016 0.5
34 1 0.9768 0.975539 0.5
ITEM: TIMESTEP
1400
ITEM: NUMBER OF ATOMS
50
ITEM: BOX BOUNDS pp pp pp
-2.0000000000000000e+01 2.0000000000000000e+01
-2.0000000000000000e+01 2.0000000000000000e+01
-5.0000000000000000e-01 5.0000000000000000e-01
ITEM: ATOMS id type xs ys zs
21 1 0.615756 0.0661146 0.5
46 1 0.0483147 0.0770096 0.5
37 1 0.225446 0.0624471 0.5
20 1 0.323414 0.159948 0.5
2 1 0.91619 0.154201 0.5
50 1 0.769179 0.214248 0.5
45 1 0.604068 0.255187 0.5
8 1 0.794249 0.246315 0.5
36 1 0.384463 0.311341 0.5
26 1 0.631648 0.347535 0.5
7 1 0.752031 0.326969 0.5
38 1 0.0974912 0.368456 0.5
31 1 0.66826 0.402653 0.5
41 1 0.281539 0.421006 0.5
11 1 0.0573338 0.407657 0.5
3 1 0.310347 0.434306 0.5
4 1 0.281965 0.446255 0.5
5 1 0.185653 0.479039 0.5
14 1 0.649324 0.5285 0.5
28 1 0.712929 0.520131 0.5
27 1 0.743125 0.553234 0.5
17 1 0.0459882 0.571848 0.5
32 1 0.533362 0.54908 0.5
19 1 0.0865467 0.579247 0.5
24 1 0.466854 0.592418 0.5
48 1 0.680158 0.602576 0.5
1 1 1.00041 0.639662 0.5
18 1 0.0487945 0.624432 0.5
13 1 0.19985 0.636489 0.5
49 1 0.243555 0.65062 0.5
22 1 0.021416 0.660695 0.5
40 1 0.215867 0.667707 0.5
43 1 0.951956 0.662629 0.5
29 1 0.972562 0.677788 0.5
39 1 0.493338 0.754448 0.5
16 1 0.676684 0.728826 0.5
9 1 0.841891 0.78644 0.5
12 1 0.424885 0.77615 0.5
35 1 0.611774 0.833609 0.5
44 1 0.806066 0.811261 0.5
6 1 0.784719 0.890767 0.5
33 1 0.834939 0.822721 0.5
47 1 0.911176 0.90607 0.5
23 1 0.119446 0.901028 0.5
42 1 0.243874 0.92024 0.5
10 1 0.709537 0.902535 0.5
30 1 0.626001 0.921903 0.5
25 1 0.199525 0.967642 0.5
15 1 0.719506 0.968717 0.5
34 1 0.984834 0.96902 0.5
ITEM: TIMESTEP
1500
ITEM: NUMBER OF ATOMS
50
ITEM: BOX BOUNDS pp pp pp
-2.0000000000000000e+01 2.0000000000000000e+01
-2.0000000000000000e+01 2.0000000000000000e+01
-5.0000000000000000e-01 5.0000000000000000e-01
ITEM: ATOMS id type xs ys zs
21 1 0.609079 0.0940301 0.5
46 1 0.0383954 0.0863901 0.5
37 1 0.229912 0.0514032 0.5
20 1 0.336304 0.148946 0.5
2 1 0.918271 0.161043 0.5
50 1 0.763473 0.195554 0.5
45 1 0.609627 0.258274 0.5
8 1 0.784345 0.246657 0.5
36 1 0.383802 0.320555 0.5
26 1 0.626615 0.32277 0.5
7 1 0.745518 0.329876 0.5
38 1 0.121973 0.379712 0.5
31 1 0.668797 0.416103 0.5
41 1 0.300617 0.417518 0.5
11 1 0.0666602 0.422785 0.5
3 1 0.323825 0.426674 0.5
4 1 0.261205 0.45116 0.5
5 1 0.15837 0.462759 0.5
14 1 0.655039 0.549371 0.5
28 1 0.700685 0.512421 0.5
27 1 0.766184 0.546 0.5
17 1 0.0322167 0.562765 0.5
32 1 0.52326 0.550247 0.5
19 1 0.0810294 0.573815 0.5
24 1 0.46404 0.596325 0.5
48 1 0.677836 0.58601 0.5
1 1 0.0187425 0.62821 0.5
18 1 0.0507988 0.629057 0.5
13 1 0.208471 0.631439 0.5
49 1 0.237495 0.647915 0.5
22 1 0.012875 0.663271 0.5
40 1 0.200495 0.672109 0.5
43 1 0.953239 0.653581 0.5
29 1 0.976278 0.680203 0.5
39 1 0.521384 0.743062 0.5
16 1 0.678235 0.707644 0.5
9 1 0.827593 0.781546 0.5
12 1 0.442878 0.779462 0.5
35 1 0.595698 0.829596 0.5
44 1 0.817685 0.814133 0.5
6 1 0.789426 0.880367 0.5
33 1 0.846297 0.832107 0.5
47 1 0.89267 0.904211 0.5
23 1 0.127436 0.896406 0.5
42 1 0.241154 0.924054 0.5
10 1 0.712955 0.888367 0.5
30 1 0.615344 0.917964 0.5
25 1 0.196305 0.974582 0.5
15 1 0.707523 0.967254 0.5
34 1 0.0043611 0.964748 0.5
ITEM: TIMESTEP
1600
ITEM: NUMBER OF ATOMS
50
ITEM: BOX BOUNDS pp pp pp
-2.0000000000000000e+01 2.0000000000000000e+01
-2.0000000000000000e+01 2.0000000000000000e+01
-5.0000000000000000e-01 5.0000000000000000e-01
ITEM: ATOMS id type xs ys zs
21 1 0.61277 0.0991125 0.5
46 1 0.0302928 0.073638 0.5
37 1 0.244419 0.0510855 0.5
20 1 0.305001 0.146905 0.5
2 1 0.928366 0.174134 0.5
50 1 0.741384 0.179959 0.5
45 1 0.626147 0.26095 0.5
8 1 0.797572 0.234084 0.5
36 1 0.393059 0.327077 0.5
26 1 0.619086 0.321434 0.5
7 1 0.740061 0.322635 0.5
38 1 0.124546 0.390172 0.5
31 1 0.686378 0.420172 0.5
41 1 0.315712 0.389794 0.5
11 1 0.0614634 0.405205 0.5
3 1 0.32872 0.423855 0.5
4 1 0.259977 0.436383 0.5
5 1 0.151724 0.483848 0.5
14 1 0.646763 0.543382 0.5
28 1 0.708426 0.519852 0.5
27 1 0.770595 0.548037 0.5
17 1 0.026274 0.54444 0.5
32 1 0.507072 0.55181 0.5
19 1 0.0961764 0.567883 0.5
24 1 0.48296 0.587503 0.5
48 1 0.685297 0.603222 0.5
1 1 0.0204694 0.629642 0.5
18 1 0.0487582 0.615714 0.5
13 1 0.211648 0.636305 0.5
49 1 0.242752 0.669915 0.5
22 1 0.0177058 0.674367 0.5
40 1 0.215036 0.661601 0.5
43 1 0.951445 0.661013 0.5
29 1 0.984026 0.668922 0.5
39 1 0.522312 0.738932 0.5
16 1 0.693877 0.695479 0.5
9 1 0.833979 0.779491 0.5
12 1 0.442352 0.792513 0.5
35 1 0.581165 0.836678 0.5
44 1 0.809955 0.816957 0.5
6 1 0.784435 0.879983 0.5
33 1 0.837279 0.818281 0.5
47 1 0.888248 0.920032 0.5
23 1 0.129215 0.894308 0.5
42 1 0.235168 0.925526 0.5
10 1 0.734535 0.872113 0.5
30 1 0.599387 0.918755 0.5
25 1 0.21614 0.972713 0.5
15 1 0.706236 0.969762 0.5
34 1 0.000530746 0.968134 0.5
ITEM: TIMESTEP
1700
ITEM: NUMBER OF ATOMS
50
ITEM: BOX BOUNDS pp pp pp
-2.0000000000000000e+01 2.0000000000000000e+01
-2.0000000000000000e+01 2.0000000000000000e+01
-5.0000000000000000e-01 5.0000000000000000e-01
ITEM: ATOMS id type xs ys zs
21 1 0.612873 0.0880724 0.5
46 1 0.0324252 0.0826921 0.5
37 1 0.242269 0.0553341 0.5
20 1 0.300809 0.137482 0.5
2 1 0.922323 0.161496 0.5
50 1 0.736589 0.18236 0.5
45 1 0.627307 0.261432 0.5
8 1 0.802135 0.234329 0.5
36 1 0.376452 0.344052 0.5
26 1 0.616749 0.336368 0.5
7 1 0.737226 0.332071 0.5
38 1 0.11243 0.378446 0.5
31 1 0.686298 0.428667 0.5
41 1 0.33084 0.397071 0.5
11 1 0.0721547 0.414437 0.5
3 1 0.367164 0.429434 0.5
4 1 0.247473 0.447664 0.5
5 1 0.147045 0.50777 0.5
14 1 0.644657 0.545133 0.5
28 1 0.718863 0.52085 0.5
27 1 0.765721 0.553166 0.5
17 1 0.0226736 0.541621 0.5
32 1 0.495078 0.554995 0.5
19 1 0.087832 0.561584 0.5
24 1 0.480457 0.619346 0.5
48 1 0.678855 0.601506 0.5
1 1 0.0177382 0.637152 0.5
18 1 0.0325393 0.608417 0.5
13 1 0.210135 0.622255 0.5
49 1 0.249848 0.677019 0.5
22 1 0.0198233 0.688903 0.5
40 1 0.226465 0.661744 0.5
43 1 0.936337 0.67041 0.5
29 1 0.975315 0.669274 0.5
39 1 0.516625 0.725183 0.5
16 1 0.692404 0.708626 0.5
9 1 0.828005 0.776758 0.5
12 1 0.444069 0.787359 0.5
35 1 0.572443 0.835971 0.5
44 1 0.802978 0.813796 0.5
6 1 0.780248 0.861015 0.5
33 1 0.829051 0.826238 0.5
47 1 0.890303 0.935671 0.5
23 1 0.121242 0.907892 0.5
42 1 0.241463 0.928566 0.5
10 1 0.7427 0.88253 0.5
30 1 0.598299 0.928279 0.5
25 1 0.215094 0.979123 0.5
15 1 0.707226 0.963318 0.5
34 1 0.00164646 0.96169 0.5
ITEM: TIMESTEP
1800
ITEM: NUMBER OF ATOMS
50
ITEM: BOX BOUNDS pp pp pp
-2.0000000000000000e+01 2.0000000000000000e+01
-2.0000000000000000e+01 2.0000000000000000e+01
-5.0000000000000000e-01 5.0000000000000000e-01
ITEM: ATOMS id type xs ys zs
21 1 0.618537 0.0930168 0.5
46 1 0.0171161 0.07601 0.5
37 1 0.241492 0.0588766 0.5
20 1 0.316757 0.115474 0.5
2 1 0.92558 0.172649 0.5
50 1 0.74058 0.193257 0.5
45 1 0.626271 0.258381 0.5
8 1 0.800885 0.226477 0.5
36 1 0.370007 0.332741 0.5
26 1 0.622657 0.318332 0.5
7 1 0.72629 0.344324 0.5
38 1 0.106606 0.366682 0.5
31 1 0.682891 0.421975 0.5
41 1 0.309351 0.387925 0.5
11 1 0.0743584 0.404315 0.5
3 1 0.38724 0.426509 0.5
4 1 0.264128 0.467538 0.5
5 1 0.116158 0.515032 0.5
14 1 0.64927 0.546194 0.5
28 1 0.717246 0.549207 0.5
27 1 0.771227 0.55609 0.5
17 1 0.0141955 0.534052 0.5
32 1 0.510804 0.569176 0.5
19 1 0.0858079 0.565556 0.5
24 1 0.482781 0.624871 0.5
48 1 0.666527 0.605546 0.5
1 1 0.0221393 0.636844 0.5
18 1 0.0153049 0.604032 0.5
13 1 0.214769 0.612904 0.5
49 1 0.276036 0.676409 0.5
22 1 0.0302294 0.694471 0.5
40 1 0.247056 0.680471 0.5
43 1 0.927597 0.661319 0.5
29 1 0.973068 0.660978 0.5
39 1 0.520096 0.728965 0.5
16 1 0.697058 0.719611 0.5
9 1 0.814112 0.774741 0.5
12 1 0.443874 0.78582 0.5
35 1 0.575723 0.830996 0.5
44 1 0.789727 0.813946 0.5
6 1 0.777715 0.854384 0.5
33 1 0.829534 0.838044 0.5
47 1 0.89038 0.917595 0.5
23 1 0.139123 0.913265 0.5
42 1 0.252283 0.952202 0.5
10 1 0.757034 0.872129 0.5
30 1 0.598408 0.929058 0.5
25 1 0.216515 0.980581 0.5
15 1 0.704617 0.972694 0.5
34 1 0.0176654 0.948047 0.5
ITEM: TIMESTEP
1900
ITEM: NUMBER OF ATOMS
50
ITEM: BOX BOUNDS pp pp pp
-2.0000000000000000e+01 2.0000000000000000e+01
-2.0000000000000000e+01 2.0000000000000000e+01
-5.0000000000000000e-01 5.0000000000000000e-01
ITEM: ATOMS id type xs ys zs
21 1 0.615653 0.0887866 0.5
46 1 0.008611 0.0690697 0.5
37 1 0.242443 0.0506071 0.5
20 1 0.316677 0.121616 0.5
2 1 0.914986 0.185682 0.5
50 1 0.742897 0.180896 0.5
45 1 0.612208 0.255002 0.5
8 1 0.788106 0.238395 0.5
36 1 0.356695 0.322934 0.5
26 1 0.608299 0.325097 0.5
7 1 0.716081 0.352001 0.5
38 1 0.107398 0.374391 0.5
31 1 0.679116 0.403416 0.5
41 1 0.300379 0.390977 0.5
11 1 0.0394355 0.391232 0.5
3 1 0.403882 0.430038 0.5
4 1 0.273115 0.488108 0.5
5 1 0.0976017 0.508797 0.5
14 1 0.636481 0.548797 0.5
28 1 0.71238 0.517683 0.5
27 1 0.779315 0.560896 0.5
17 1 0.0130601 0.545316 0.5
32 1 0.510177 0.571174 0.5
19 1 0.0698 0.562617 0.5
24 1 0.484507 0.627583 0.5
48 1 0.676354 0.618971 0.5
1 1 0.0190247 0.635659 0.5
18 1 0.0160939 0.588815 0.5
13 1 0.209042 0.626399 0.5
49 1 0.292228 0.693242 0.5
22 1 0.036834 0.681643 0.5
40 1 0.23786 0.688533 0.5
43 1 0.923921 0.656165 0.5
29 1 0.979788 0.637881 0.5
39 1 0.509901 0.715449 0.5
16 1 0.71345 0.729787 0.5
9 1 0.803803 0.779408 0.5
12 1 0.444943 0.791231 0.5
35 1 0.565514 0.836876 0.5
44 1 0.777001 0.811966 0.5
6 1 0.776178 0.839996 0.5
33 1 0.82292 0.831062 0.5
47 1 0.894354 0.927267 0.5
23 1 0.14407 0.892211 0.5
42 1 0.267473 0.954546 0.5
10 1 0.763807 0.871895 0.5
30 1 0.588094 0.942008 0.5
25 1 0.217616 0.989735 0.5
15 1 0.703857 0.970756 0.5