ITEM: TIMESTEP
100
ITEM: NUMBER OF ATOMS
100
ITEM: BOX BOUNDS pp pp pp
-2.0000000000000000e+01 2.0000000000000000e+01
-2.0000000000000000e+01 2.0000000000000000e+01
-2.0000000000000000e+01 2.0000000000000000e+01
ITEM: ATOMS id type xs ys zs
2 1 0.947244 0.100949 0.0041581
90 1 0.138722 0.484341 0.989444
99 1 0.709022 0.557239 0.019901
39 1 0.624936 0.811175 0.0338023
61 1 0.902457 0.410407 0.0639171
71 1 0.792593 0.542825 0.0515895
80 1 0.351916 0.637372 0.0754886
35 1 0.996338 0.981131 0.0465475
45 1 0.256766 0.433901 0.107802
76 1 0.868477 0.606441 0.0814299
69 1 0.54328 0.364165 0.150346
27 1 0.571427 0.303911 0.152225
5 1 0.170606 0.507584 0.128679
16 1 0.690693 0.725329 0.131128
59 1 0.360205 0.356707 0.157735
60 1 0.716069 0.376733 0.178181
82 1 0.758311 0.641744 0.17892
18 1 0.0391769 0.648335 0.143431
87 1 0.629724 0.97833 0.191648
97 1 0.896895 0.351922 0.200949
20 1 0.0608604 0.567904 0.217544
23 1 0.0239956 0.665883 0.193787
6 1 0.767624 0.934076 0.187028
7 1 0.783199 0.353088 0.212814
25 1 0.45155 0.549231 0.252666
58 1 0.347129 0.569334 0.285116
19 1 0.960449 0.574878 0.244455
88 1 0.560794 0.77645 0.235054
26 1 0.184263 0.975308 0.254199
32 1 0.619185 0.332423 0.313096
54 1 0.752595 0.235705 0.348449
66 1 0.226125 0.414981 0.353478
15 1 0.709654 0.0509439 0.379219
21 1 0.353931 0.166119 0.379514
73 1 0.850846 0.24474 0.410578
9 1 0.839887 0.758773 0.427984
77 1 0.346052 0.703405 0.440186
70 1 0.679553 0.806583 0.450529
34 1 0.887832 0.876458 0.464847
83 1 0.358001 0.824378 0.475591
51 1 0.941943 0.902653 0.48336
33 1 0.529546 0.559861 0.519268
96 1 0.165418 0.98253 0.534299
63 1 0.119623 0.392534 0.531992
29 1 0.729562 0.518665 0.531901
79 1 0.652189 0.777138 0.577113
37 1 0.344197 0.326928 0.581749
81 1 0.808052 0.389235 0.579296
1 1 0.952182 0.567557 0.58419
85 1 0.720406 0.622765 0.572554
48 1 0.870714 0.836266 0.595365
38 1 0.192977 0.079434 0.641646
44 1 0.774377 0.22015 0.617677
49 1 0.662469 0.309426 0.602053
56 1 0.612088 0.60565 0.639053
68 1 0.695149 0.986207 0.623476
31 1 0.721921 0.961922 0.614059
98 1 0.874319 0.0525979 0.701958
75 1 0.539439 0.140351 0.648326
47 1 0.904965 0.625564 0.637274
40 1 0.286725 0.409116 0.710286
64 1 0.99954 0.402786 0.686312
24 1 0.174996 0.91937 0.728452
8 1 0.764391 0.224106 0.71398
3 1 0.323643 0.489173 0.706999
72 1 0.35142 0.477765 0.730177
42 1 0.50898 0.773067 0.696292
89 1 0.836566 0.769887 0.734403
12 1 0.421396 0.800464 0.731005
46 1 0.310676 0.967876 0.725648
14 1 0.702004 0.538061 0.774951
28 1 0.739769 0.588306 0.767322
30 1 0.992209 0.603395 0.737705
86 1 0.360465 0.237035 0.798817
43 1 0.225627 0.656765 0.813688
94 1 0.466747 0.66678 0.797813
67 1 0.763575 0.728792 0.798185
41 1 0.777639 0.937798 0.809432
50 1 0.0988564 0.0643866 0.816438
93 1 0.990184 0.398592 0.843884
95 1 0.529543 0.00148175 0.877161
22 1 0.557658 0.0176699 0.865075
57 1 0.453513 0.17501 0.878752
78 1 0.496201 0.462827 0.874892
52 1 0.625912 0.631449 0.885972
53 1 0.173107 0.516329 0.942831
13 1 0.119372 0.563963 0.874692
36 1 0.615861 0.810774 0.890205
62 1 0.376788 0.870994 0.920145
100 1 0.642693 0.382518 0.931709
92 1 0.506087 0.78994 0.926959
65 1 0.185779 0.0311048 0.973402
84 1 0.960808 0.321892 0.00130114
11 1 0.0633309 0.43667 0.990948
17 1 0.0338932 0.526611 0.997008
4 1 0.274974 0.540986 0.99391
91 1 0.650049 0.555328 0.964425
74 1 0.470074 0.681795 0.998834
55 1 0.0104243 0.843012 0.984488
10 1 0.732381 0.870838 0.968008
ITEM: TIMESTEP
200
ITEM: NUMBER OF ATOMS
100
ITEM: BOX BOUNDS pp pp pp
-2.0000000000000000e+01 2.0000000000000000e+01
-2.0000000000000000e+01 2.0000000000000000e+01
-2.0000000000000000e+01 2.0000000000000000e+01
ITEM: ATOMS id type xs ys zs
2 1 0.956638 0.079862 0.0100813
90 1 0.146544 0.483547 0.993643
99 1 0.712088 0.536581 0.0127719
39 1 0.610385 0.811912 0.0241879
61 1 0.904765 0.415302 0.0598911
71 1 0.798362 0.52008 0.0515806
80 1 0.35388 0.629633 0.0778647
35 1 0.997767 0.990915 0.04012
45 1 0.2505 0.431094 0.122092
76 1 0.873881 0.600735 0.0802324
69 1 0.533626 0.344748 0.161601
27 1 0.582379 0.310302 0.156498
5 1 0.18148 0.497675 0.146213
16 1 0.665551 0.715958 0.120046
59 1 0.362444 0.350309 0.148549
60 1 0.730935 0.382201 0.189154
82 1 0.76632 0.643821 0.175336
18 1 0.0251554 0.648826 0.156635
87 1 0.602564 0.963615 0.197156
97 1 0.909329 0.348783 0.193931
20 1 0.0477895 0.575253 0.215472
23 1 0.0279577 0.678028 0.179935
6 1 0.770199 0.943216 0.186692
7 1 0.788267 0.348259 0.207331
25 1 0.455908 0.573695 0.237995
58 1 0.325624 0.567579 0.294583
19 1 0.958118 0.607675 0.22811
88 1 0.562716 0.774403 0.229947
26 1 0.174439 0.981313 0.261235
32 1 0.610754 0.323015 0.335081
54 1 0.753405 0.230827 0.350545
66 1 0.233305 0.421971 0.364417
15 1 0.690269 0.0463628 0.387887
21 1 0.339015 0.163816 0.380488
73 1 0.845276 0.239145 0.41742
9 1 0.829838 0.771113 0.424091
77 1 0.342807 0.696161 0.426581
70 1 0.664818 0.797508 0.446413
34 1 0.909124 0.875836 0.481989
83 1 0.348468 0.802008 0.485953
51 1 0.924158 0.895205 0.485643
33 1 0.525267 0.542333 0.508057
96 1 0.150636 0.978533 0.517784
63 1 0.107265 0.387919 0.543307
29 1 0.735316 0.524286 0.514551
79 1 0.638978 0.765188 0.571713
37 1 0.350835 0.318104 0.576874
81 1 0.812591 0.388854 0.589738
1 1 0.952975 0.563142 0.590091
85 1 0.728878 0.638565 0.56782
48 1 0.875962 0.85725 0.590574
38 1 0.203342 0.0904368 0.641479
44 1 0.763638 0.213526 0.612681
49 1 0.652836 0.301176 0.59664
56 1 0.625648 0.614406 0.643225
68 1 0.687464 0.98689 0.608049
31 1 0.728736 0.960983 0.606287
98 1 0.878559 0.0646091 0.716851
75 1 0.527223 0.135794 0.64267
47 1 0.913215 0.635183 0.663689
40 1 0.282961 0.397839 0.693255
64 1 0.0102134 0.410567 0.684417
24 1 0.16899 0.914731 0.744003
8 1 0.764856 0.224425 0.707325
3 1 0.332887 0.481153 0.709478
72 1 0.358834 0.470814 0.733135
42 1 0.499806 0.768652 0.691749
89 1 0.830465 0.787005 0.72102
12 1 0.40686 0.815059 0.742909
46 1 0.302415 0.97037 0.736363
14 1 0.69654 0.550412 0.766898
28 1 0.733632 0.58662 0.765388
30 1 0.979739 0.599132 0.747068
86 1 0.366673 0.239423 0.799741
43 1 0.23429 0.670435 0.802894
94 1 0.46776 0.640156 0.797669
67 1 0.756569 0.742264 0.811425
41 1 0.772804 0.941303 0.807443
50 1 0.0924551 0.0869919 0.811346
93 1 0.999465 0.398914 0.84637
95 1 0.526672 0.0063493 0.876229
22 1 0.56886 0.0129605 0.879979
57 1 0.445752 0.175465 0.88488
78 1 0.47598 0.466847 0.858328
52 1 0.634978 0.637755 0.901017
53 1 0.155822 0.533225 0.92436
13 1 0.134781 0.560641 0.886883
36 1 0.621729 0.795281 0.900896
62 1 0.369499 0.878205 0.926836
100 1 0.646626 0.382778 0.943009
92 1 0.50463 0.793945 0.924343
65 1 0.181925 0.0311294 0.97674
84 1 0.951981 0.298767 0.00618547
11 1 0.0668924 0.406843 0.977528
17 1 0.0369156 0.526563 0.994343
4 1 0.281411 0.5346 0.981302
91 1 0.66496 0.549533 0.970158
74 1 0.484656 0.675586 0.986535
55 1 0.0255687 0.834296 0.966728
10 1 0.730831 0.87469 0.964909
ITEM: TIMESTEP
300
ITEM: NUMBER OF ATOMS
100
ITEM: BOX BOUNDS pp pp pp
-2.0000000000000000e+01 2.0000000000000000e+01
-2.0000000000000000e+01 2.0000000000000000e+01
-2.0000000000000000e+01 2.0000000000000000e+01
ITEM: ATOMS id type xs ys zs
2 1 0.964558 0.0825216 0.00299768
90 1 0.136553 0.482664 0.99381
99 1 0.712792 0.537028 0.0246268
39 1 0.612368 0.813538 0.0300068
61 1 0.899742 0.420516 0.0604981
71 1 0.810259 0.542103 0.0753797
80 1 0.364175 0.628643 0.0787691
35 1 0.996735 0.994524 0.0472462
45 1 0.252456 0.430169 0.115177
76 1 0.866711 0.623239 0.0706676
69 1 0.529426 0.345537 0.172773
27 1 0.578424 0.329097 0.15584
5 1 0.175734 0.508954 0.150218
16 1 0.63315 0.709613 0.134376
59 1 0.359857 0.353106 0.146677
60 1 0.734069 0.363518 0.204382
82 1 0.780994 0.648022 0.158887
18 1 0.0408609 0.662198 0.161242
87 1 0.597657 0.956957 0.190846
97 1 0.914678 0.335671 0.193933
20 1 0.0310438 0.563517 0.206852
23 1 0.0132671 0.686004 0.165763
6 1 0.777891 0.931461 0.18908
7 1 0.795372 0.356297 0.223656
25 1 0.444644 0.554937 0.238887
58 1 0.333339 0.557495 0.28947
19 1 0.942293 0.602185 0.206084
88 1 0.586227 0.758063 0.234386
26 1 0.180816 0.982563 0.254252
32 1 0.609416 0.313681 0.329568
54 1 0.755984 0.210576 0.34362
66 1 0.240595 0.412738 0.353961
15 1 0.685588 0.047316 0.372103
21 1 0.350806 0.160994 0.387562
73 1 0.846339 0.227439 0.431031
9 1 0.830904 0.767773 0.431221
77 1 0.330546 0.682537 0.428773
70 1 0.666133 0.800673 0.455042
34 1 0.904785 0.868417 0.482846
83 1 0.342648 0.815797 0.482459
51 1 0.891339 0.893744 0.491443
33 1 0.532965 0.538473 0.493028
96 1 0.128245 0.975078 0.498491
63 1 0.105597 0.391788 0.54704
29 1 0.726514 0.509827 0.514548
79 1 0.628981 0.772884 0.576895
37 1 0.370909 0.328359 0.590114
81 1 0.797842 0.397801 0.576205
1 1 0.953061 0.557215 0.584888
85 1 0.729574 0.641171 0.567426
48 1 0.882967 0.852801 0.58731
38 1 0.19152 0.0826471 0.650464
44 1 0.756507 0.198441 0.589729
49 1 0.646482 0.290794 0.608596
56 1 0.623831 0.620369 0.631631
68 1 0.687145 0.991577 0.613223
31 1 0.711992 0.964128 0.589772
98 1 0.879236 0.0601276 0.716449
75 1 0.515253 0.125377 0.642944
47 1 0.910268 0.637278 0.685875
40 1 0.27958 0.409095 0.678265
64 1 0.0295679 0.419064 0.687839
24 1 0.169465 0.9268 0.744022
8 1 0.78775 0.236825 0.698748
3 1 0.337552 0.476581 0.696387
72 1 0.344862 0.486125 0.732036
42 1 0.499644 0.751941 0.678103
89 1 0.817534 0.808554 0.713294
12 1 0.41603 0.818515 0.724129
46 1 0.30615 0.971728 0.741858
14 1 0.704205 0.563691 0.773601
28 1 0.72158 0.58131 0.77602
30 1 0.978972 0.602074 0.74823
86 1 0.371432 0.247341 0.803029
43 1 0.233462 0.678852 0.803511
94 1 0.451488 0.650281 0.807999
67 1 0.759565 0.737502 0.819052
41 1 0.774304 0.939702 0.795558
50 1 0.102277 0.0969885 0.826159
93 1 0.00177103 0.417455 0.847535
95 1 0.541341 0.00910869 0.871632
22 1 0.566374 0.0306812 0.88479
57 1 0.447029 0.171819 0.891175
78 1 0.490249 0.467401 0.863823
52 1 0.635922 0.642404 0.916741
53 1 0.147223 0.541983 0.922974
13 1 0.131793 0.5545 0.886515
36 1 0.620001 0.793776 0.909998
62 1 0.371825 0.873512 0.926063
100 1 0.650296 0.384985 0.933682
92 1 0.516316 0.802034 0.910945
65 1 0.18884 0.0310049 0.961899
84 1 0.936189 0.305213 0.00628847
11 1 0.0431509 0.415261 0.98783
17 1 0.0569881 0.539723 0.00146641
4 1 0.288035 0.530315 0.975243
91 1 0.669245 0.556556 0.987669
74 1 0.485012 0.66863 0.980537
55 1 0.0268908 0.830897 0.982676
10 1 0.724436 0.859915 0.973129
ITEM: TIMESTEP
400
ITEM: NUMBER OF ATOMS
100
ITEM: BOX BOUNDS pp pp pp
-2.0000000000000000e+01 2.0000000000000000e+01
-2.0000000000000000e+01 2.0000000000000000e+01
-2.0000000000000000e+01 2.0000000000000000e+01
ITEM: ATOMS id type xs ys zs
2 1 0.972014 0.0867638 0.0216367
90 1 0.14484 0.482982 0.0013389
99 1 0.720392 0.516118 0.0211365
39 1 0.623112 0.8118 0.0348822
61 1 0.887467 0.432308 0.0455165
71 1 0.818467 0.542729 0.074428
80 1 0.346075 0.626584 0.0818479
35 1 0.993621 0.980571 0.0165602
45 1 0.259563 0.422579 0.115539
76 1 0.887323 0.621529 0.0741822
69 1 0.521746 0.336144 0.170595
27 1 0.55665 0.328809 0.133227
5 1 0.17591 0.497955 0.15656
16 1 0.626296 0.731305 0.130328
59 1 0.368005 0.370005 0.155086
60 1 0.728543 0.362573 0.201295
82 1 0.776369 0.641847 0.15644
18 1 0.0392591 0.667604 0.154254
87 1 0.617727 0.935857 0.186668
97 1 0.907628 0.328148 0.19255
20 1 0.0427387 0.550981 0.210021
23 1 0.00830183 0.678237 0.152259
6 1 0.766664 0.931969 0.206578
7 1 0.791418 0.348186 0.214143
25 1 0.453916 0.540611 0.218016
58 1 0.334996 0.560606 0.298975
19 1 0.947159 0.60345 0.190224
88 1 0.584624 0.757377 0.236011
26 1 0.168774 0.976278 0.247916
32 1 0.612859 0.307005 0.321499
54 1 0.745769 0.203352 0.354399
66 1 0.241065 0.406064 0.346235
15 1 0.682352 0.0465656 0.357656
21 1 0.344423 0.157148 0.374086
73 1 0.848692 0.233761 0.435498
9 1 0.827563 0.769062 0.442375
77 1 0.338285 0.652315 0.439426
70 1 0.667094 0.813127 0.46914
34 1 0.923017 0.870271 0.472481
83 1 0.326603 0.830995 0.484943
51 1 0.901802 0.8942 0.503068
33 1 0.549969 0.554582 0.48541
96 1 0.141062 0.972975 0.480477
63 1 0.106532 0.392804 0.547097
29 1 0.720259 0.507893 0.521699
79 1 0.626267 0.759148 0.590784
37 1 0.352505 0.334841 0.592713
81 1 0.794588 0.421657 0.570684
1 1 0.955599 0.559158 0.606561
85 1 0.729636 0.65013 0.577046
48 1 0.895016 0.854536 0.594313
38 1 0.216777 0.0704559 0.659472
44 1 0.761239 0.216094 0.587634
49 1 0.658293 0.281488 0.606881
56 1 0.62441 0.624567 0.630711
68 1 0.682735 0.99897 0.610406
31 1 0.708608 0.97159 0.615237
98 1 0.878117 0.0656437 0.712824
75 1 0.528489 0.130295 0.65565
47 1 0.911319 0.628 0.684435
40 1 0.300398 0.422067 0.669194
64 1 0.0444007 0.420981 0.694599
24 1 0.145856 0.922905 0.741561
8 1 0.774179 0.244156 0.70128
3 1 0.339628 0.496226 0.700438
72 1 0.344633 0.474763 0.734303
42 1 0.497068 0.751341 0.679572
89 1 0.827859 0.815078 0.723647
12 1 0.418653 0.811652 0.722265
46 1 0.307563 0.984106 0.734011
14 1 0.707875 0.57161 0.754462
28 1 0.715613 0.582599 0.775215
30 1 0.982968 0.591671 0.748563
86 1 0.389442 0.259238 0.807663
43 1 0.227604 0.684477 0.81417
94 1 0.44092 0.674165 0.795727
67 1 0.733384 0.712673 0.815057
41 1 0.777294 0.941411 0.793966
50 1 0.114092 0.100491 0.810409
93 1 0.00419201 0.429071 0.844927
95 1 0.549551 0.0111931 0.896546
22 1 0.557137 0.0368877 0.88179
57 1 0.454758 0.175057 0.877629
78 1 0.498861 0.460047 0.856098
52 1 0.637888 0.637564 0.913014
53 1 0.15666 0.53673 0.913775
13 1 0.139118 0.565127 0.883451
36 1 0.602077 0.797965 0.909767
62 1 0.404503 0.852468 0.926519
100 1 0.659537 0.354894 0.928451
92 1 0.516504 0.808062 0.915025
65 1 0.201266 0.0249719 0.975964
84 1 0.931654 0.303491 0.00500578
11 1 0.0502998 0.41779 0.99826
17 1 0.0675596 0.560753 0.0144139
4 1 0.293642 0.513829 0.97135
91 1 0.667498 0.564939 0.997218
74 1 0.476187 0.653279 0.967849
55 1 0.0347489 0.829792 0.99369
10 1 0.711189 0.862998 0.976972
ITEM: TIMESTEP
500
ITEM: NUMBER OF ATOMS
100
ITEM: BOX BOUNDS pp pp pp
-2.0000000000000000e+01 2.0000000000000000e+01
-2.0000000000000000e+01 2.0000000000000000e+01
-2.0000000000000000e+01 2.0000000000000000e+01
ITEM: ATOMS id type xs ys zs
2 1 0.987138 0.0867821 0.031039
90 1 0.120458 0.482606 0.0182404
99 1 0.737665 0.503525 0.0289382
39 1 0.606999 0.806172 0.0245627
61 1 0.876458 0.435065 0.0513461
71 1 0.806297 0.544999 0.0711263
80 1 0.353504 0.61642 0.0881335
35 1 0.987513 0.964029 0.021797
45 1 0.263496 0.41525 0.12057
76 1 0.893055 0.633062 0.0769767
69 1 0.533889 0.328866 0.173434
27 1 0.563728 0.33272 0.119301
5 1 0.193467 0.510113 0.16017
16 1 0.628253 0.727678 0.134701
59 1 0.358566 0.36444 0.168598
60 1 0.732671 0.342398 0.195308
82 1 0.777159 0.649151 0.169482
18 1 0.0427215 0.679449 0.143121
87 1 0.635174 0.915602 0.184063
97 1 0.909856 0.323357 0.202804
20 1 0.0498432 0.553479 0.214044
23 1 0.0191618 0.693131 0.16113
6 1 0.765059 0.916788 0.194819
7 1 0.800352 0.361818 0.213556
25 1 0.474394 0.524983 0.192086
58 1 0.323362 0.559315 0.289043
19 1 0.958655 0.590837 0.182829
88 1 0.602984 0.725822 0.228007
26 1 0.177308 0.989295 0.252519
32 1 0.593956 0.306975 0.306252
54 1 0.735162 0.202935 0.360487
66 1 0.264453 0.422088 0.358402
15 1 0.695816 0.0625766 0.362939
21 1 0.350613 0.145083 0.376826
73 1 0.853696 0.238093 0.430393
9 1 0.822586 0.772532 0.435165
77 1 0.331576 0.640047 0.44022
70 1 0.669132 0.815297 0.463268
34 1 0.904655 0.871723 0.476698
83 1 0.324228 0.849297 0.503924
51 1 0.891315 0.898612 0.512289
33 1 0.547567 0.563629 0.48179
96 1 0.146682 0.971985 0.472109
63 1 0.0839944 0.407264 0.541475
29 1 0.709465 0.517166 0.521152
79 1 0.625205 0.749127 0.616671
37 1 0.351651 0.342732 0.569593
81 1 0.785984 0.421523 0.57664
1 1 0.953825 0.55303 0.60408
85 1 0.716559 0.643305 0.596785
48 1 0.879384 0.856221 0.609877
38 1 0.206782 0.070109 0.660639
44 1 0.763005 0.217948 0.597891
49 1 0.646289 0.279163 0.586849
56 1 0.645731 0.616181 0.634706
68 1 0.670713 0.987375 0.613385
31 1 0.706821 0.96988 0.625891
98 1 0.871156 0.0841491 0.698728
75 1 0.511584 0.146651 0.645019
47 1 0.90881 0.627893 0.675387
40 1 0.296297 0.405433 0.666477
64 1 0.0461293 0.385789 0.684284
24 1 0.133219 0.918736 0.746168
8 1 0.743894 0.253115 0.69659
3 1 0.338182 0.487722 0.697182
72 1 0.336563 0.479382 0.73333
42 1 0.500602 0.753823 0.68682
89 1 0.823642 0.822064 0.72121
12 1 0.407011 0.822582 0.725879
46 1 0.301452 0.987227 0.750172
14 1 0.693648 0.561871 0.74674
28 1 0.747629 0.598632 0.77573
30 1 0.987168 0.569471 0.75534
86 1 0.400757 0.258326 0.809781
43 1 0.200551 0.679205 0.80717
94 1 0.435925 0.65994 0.790073
67 1 0.73785 0.71531 0.816156
41 1 0.772518 0.926697 0.7852
50 1 0.120005 0.100396 0.82886
93 1 0.0151947 0.418197 0.863797
95 1 0.562457 0.00632324 0.889794
22 1 0.544808 0.0402259 0.874235
57 1 0.458117 0.169249 0.876867
78 1 0.515732 0.456957 0.850647
52 1 0.615495 0.625223 0.925274
53 1 0.154247 0.528254 0.92126
13 1 0.129215 0.586747 0.891391
36 1 0.605669 0.7711 0.916041
62 1 0.39895 0.879485 0.935765
100 1 0.656923 0.369292 0.918852
92 1 0.500667 0.802242 0.9088
65 1 0.172172 0.0276938 0.969521
84 1 0.936702 0.305611 0.0157213
11 1 0.0548533 0.429087 0.00411961
17 1 0.0471394 0.561698 0.991887
4 1 0.293155 0.518257 0.964485
91 1 0.662699 0.566514 0.989628
74 1 0.497436 0.644065 0.958083
55 1 0.0320261 0.828521 0.993543
10 1 0.70879 0.865612 0.986211
ITEM: TIMESTEP
600
ITEM: NUMBER OF ATOMS
100
ITEM: BOX BOUNDS pp pp pp
-2.0000000000000000e+01 2.0000000000000000e+01
-2.0000000000000000e+01 2.0000000000000000e+01
-2.0000000000000000e+01 2.0000000000000000e+01
ITEM: ATOMS id type xs ys zs
2 1 0.972653 0.0860844 0.030767
90 1 0.105735 0.503538 0.0362303
99 1 0.734207 0.495379 0.0346925
39 1 0.598175 0.816737 0.00967742
61 1 0.863573 0.433412 0.0531034
71 1 0.801694 0.551512 0.0690625
80 1 0.334825 0.599764 0.0715072
35 1 0.989652 0.971008 0.00585383
45 1 0.266154 0.423914 0.121229
76 1 0.902422 0.646247 0.0637237
69 1 0.549988 0.310417 0.180427
27 1 0.564375 0.32132 0.138507
5 1 0.195159 0.521479 0.156431
16 1 0.617319 0.721503 0.148071
59 1 0.354638 0.355031 0.157076
60 1 0.73791 0.323602 0.208139
82 1 0.779549 0.642332 0.174389
18 1 0.0601896 0.66049 0.142641
87 1 0.643933 0.916225 0.184201
97 1 0.906884 0.32343 0.200649
20 1 0.0323524 0.538599 0.217079
23 1 0.0186639 0.689866 0.144685
6 1 0.762431 0.92088 0.185208
7 1 0.793885 0.367568 0.226987
25 1 0.487253 0.523846 0.196717
58 1 0.329793 0.558914 0.290956
19 1 0.94826 0.588306 0.169495
88 1 0.614087 0.728145 0.215025
26 1 0.203029 0.989346 0.251611
32 1 0.61757 0.321088 0.305537
54 1 0.74926 0.195971 0.357698
66 1 0.272683 0.421109 0.358043
15 1 0.697037 0.0696544 0.358716
21 1 0.348269 0.134215 0.386409
73 1 0.850644 0.255525 0.443958
9 1 0.83109 0.780849 0.454575
77 1 0.344635 0.636052 0.429072
70 1 0.66532 0.81303 0.472776
34 1 0.885335 0.879362 0.484802
83 1 0.327371 0.855654 0.49039
51 1 0.885348 0.90206 0.503858
33 1 0.554117 0.571871 0.489924
96 1 0.144524 0.985292 0.473891
63 1 0.0721722 0.398286 0.550537
29 1 0.694578 0.512415 0.51786
79 1 0.626797 0.745472 0.604672
37 1 0.346689 0.336464 0.575739
81 1 0.770264 0.426814 0.566742
1 1 0.940174 0.566897 0.615664
85 1 0.733168 0.633133 0.589032
48 1 0.887859 0.875982 0.624073
38 1 0.200706 0.0683704 0.673366
44 1 0.767978 0.216717 0.60795
49 1 0.65169 0.280669 0.587063
56 1 0.66175 0.619753 0.61796
68 1 0.667556 0.978033 0.603921
31 1 0.71163 0.968869 0.608009
98 1 0.864401 0.0662022 0.690172
75 1 0.526284 0.147327 0.634428
47 1 0.911537 0.635638 0.68522
40 1 0.291495 0.389094 0.652065
64 1 0.020399 0.382363 0.691721
24 1 0.128058 0.924668 0.754627
8 1 0.754131 0.261318 0.704612
3 1 0.329106 0.48977 0.701814
72 1 0.347805 0.483706 0.725603
42 1 0.48163 0.74736 0.682197
89 1 0.819401 0.822838 0.731881
12 1 0.405746 0.839332 0.753271
46 1 0.301744 0.995535 0.748602
14 1 0.700354 0.562267 0.727001
28 1 0.738335 0.589588 0.775169
30 1 0.979402 0.560334 0.735192
86 1 0.414016 0.260276 0.802143
43 1 0.187588 0.663727 0.803313
94 1 0.446814 0.652758 0.771105
67 1 0.731801 0.726511 0.816044
41 1 0.77718 0.92487 0.787623
50 1 0.136211 0.11086 0.824439
93 1 0.0247347 0.412496 0.866366
95 1 0.549347 0.00732389 0.88133
22 1 0.53807 0.05203 0.860518
57 1 0.454189 0.156416 0.868143
78 1 0.530735 0.471943 0.840373
52 1 0.616399 0.622361 0.93128
53 1 0.162315 0.510259 0.924235
13 1 0.142606 0.59575 0.899795
36 1 0.614595 0.750343 0.909811
62 1 0.386509 0.88396 0.941272
100 1 0.653696 0.35598 0.913703
92 1 0.515516 0.810667 0.885855
65 1 0.162612 0.00521592 0.961474
84 1 0.934443 0.318441 0.0139506
11 1 0.0477027 0.429057 0.00852649
17 1 0.0336931 0.551802 -5.61978e-05
4 1 0.278316 0.504715 0.960394
91 1 0.635316 0.567214 0.0045811
74 1 0.49424 0.630268 0.959475
55 1 0.0304898 0.824829 0.996228
10 1 0.699338 0.869366 0.985336
ITEM: TIMESTEP
700
ITEM: NUMBER OF ATOMS
100
ITEM: BOX BOUNDS pp pp pp
-2.0000000000000000e+01 2.0000000000000000e+01
-2.0000000000000000e+01 2.0000000000000000e+01
-2.0000000000000000e+01 2.0000000000000000e+01
ITEM: ATOMS id type xs ys zs
2 1 0.971383 0.0917359 0.022315
90 1 0.104142 0.500618 0.0389285
99 1 0.728518 0.501194 0.0265258
39 1 0.589737 0.829986 0.0127883
61 1 0.865248 0.430995 0.0557224
71 1 0.795119 0.544542 0.0492709
80 1 0.33552 0.597241 0.066814
35 1 0.00518425 0.980493 0.00104518
45 1 0.252871 0.433433 0.109764
76 1 0.912424 0.650156 0.0448358
69 1 0.543986 0.315056 0.172785
27 1 0.569371 0.326246 0.152912
5 1 0.204477 0.523586 0.153589
16 1 0.634348 0.708052 0.154715
59 1 0.357287 0.353923 0.159066
60 1 0.739093 0.316671 0.200607
82 1 0.780531 0.636376 0.178119
18 1 0.0581257 0.662321 0.128409
87 1 0.641818 0.918621 0.190883
97 1 0.901838 0.323647 0.184489
20 1 0.0299866 0.553895 0.245541
23 1 0.0324266 0.703457 0.168186
6 1 0.767961 0.91743 0.190753
7 1 0.791742 0.35626 0.230907
25 1 0.472137 0.529301 0.194747
58 1 0.329128 0.549687 0.281391
19 1 0.968228 0.583201 0.158001
88 1 0.61686 0.739129 0.207158
26 1 0.230769 0.978694 0.221828
32 1 0.618753 0.321736 0.304101
54 1 0.737957 0.207914 0.362686
66 1 0.276512 0.422613 0.369147
15 1 0.709625 0.078873 0.378883
21 1 0.337957 0.140179 0.387379
73 1 0.847117 0.262056 0.424424
9 1 0.826739 0.773964 0.44926
77 1 0.322616 0.643625 0.409852
70 1 0.666036 0.81338 0.479581
34 1 0.903379 0.88141 0.47106
83 1 0.328112 0.843046 0.492448
51 1 0.889734 0.906062 0.534241
33 1 0.548197 0.560012 0.456113
96 1 0.141314 0.997791 0.485632
63 1 0.0562946 0.39036 0.55982
29 1 0.695563 0.50936 0.523704
79 1 0.619294 0.744468 0.606904
37 1 0.335079 0.317262 0.571978
81 1 0.758703 0.465924 0.566516
1 1 0.937361 0.56528 0.63676
85 1 0.743234 0.615368 0.578632
48 1 0.896259 0.893529 0.620344
38 1 0.194997 0.0701996 0.668447
44 1 0.776187 0.216977 0.617509
49 1 0.676952 0.277145 0.582237
56 1 0.661404 0.623728 0.617634
68 1 0.6794 0.979585 0.626444
31 1 0.713553 0.964068 0.593609
98 1 0.852261 0.0533989 0.714003
75 1 0.526906 0.131534 0.633076
47 1 0.906361 0.61035 0.697338
40 1 0.261344 0.403375 0.65639
64 1 0.0101279 0.38317 0.684599
24 1 0.130101 0.952582 0.768808
8 1 0.743771 0.269735 0.69837
3 1 0.318445 0.481485 0.707891
72 1 0.341036 0.485136 0.719554
42 1 0.479511 0.751823 0.686775
89 1 0.831931 0.804019 0.745338
12 1 0.398387 0.833718 0.755957
46 1 0.322054 0.989754 0.754695
14 1 0.691607 0.586897 0.711673
28 1 0.741532 0.592221 0.77093
30 1 0.962616 0.55447 0.729176
86 1 0.419602 0.272833 0.798505
43 1 0.195944 0.67828 0.802798
94 1 0.44292 0.667798 0.77516
67 1 0.730991 0.722737 0.806043
41 1 0.779739 0.924334 0.777587
50 1 0.146819 0.121225 0.826329
93 1 0.0385507 0.414247 0.865716
95 1 0.537476 0.015642 0.872385
22 1 0.528431 0.0428602 0.846889
57 1 0.466735 0.164853 0.868397
78 1 0.51528 0.469032 0.829647
52 1 0.6275 0.629036 0.932405
53 1 0.172625 0.511553 0.926474
13 1 0.141966 0.606042 0.897685
36 1 0.628345 0.757599 0.912624
62 1 0.379155 0.874478 0.938633
100 1 0.659679 0.358791 0.90604
92 1 0.515211 0.817889 0.893086
65 1 0.174989 0.00418819 0.959242
84 1 0.947357 0.312711 0.0167404
11 1 0.0575374 0.432822 0.00714212
17 1 0.0262506 0.564611 0.00511376
4 1 0.29679 0.508391 0.966916
91 1 0.629736 0.573148 0.995002
74 1 0.488455 0.618964 0.955712
55 1 0.0317329 0.8235 0.00808876
10 1 0.699679 0.863667 0.991469
ITEM: TIMESTEP
800
ITEM: NUMBER OF ATOMS
100
ITEM: BOX BOUNDS pp pp pp
-2.0000000000000000e+01 2.0000000000000000e+01
-2.0000000000000000e+01 2.0000000000000000e+01
-2.0000000000000000e+01 2.0000000000000000e+01
ITEM: ATOMS id type xs ys zs
2 1 0.96603 0.112151 0.0307623
90 1 0.106454 0.506164 0.0227379
99 1 0.750445 0.495894 0.0228758
39 1 0.568646 0.831302 0.0153615
61 1 0.874432 0.445596 0.0535508
71 1 0.788682 0.521834 0.0363554
80 1 0.350552 0.617294 0.0558655
35 1 0.99654 0.960062 0.00917056
45 1 0.252214 0.447943 0.114979
76 1 0.906248 0.632143 0.0327943
69 1 0.5494 0.301544 0.169989
27 1 0.571787 0.329226 0.15788
5 1 0.232327 0.535922 0.154335
16 1 0.656029 0.701711 0.168783
59 1 0.36398 0.348651 0.150576
60 1 0.733255 0.312773 0.212237
82 1 0.76259 0.636988 0.189581
18 1 0.042654 0.673569 0.138818
87 1 0.64075 0.906069 0.179073
97 1 0.909504 0.316068 0.176941
20 1 0.0492552 0.563621 0.244541
23 1 0.0178344 0.683424 0.153174
6 1 0.755207 0.910853 0.190841
7 1 0.807107 0.360937 0.231161
25 1 0.488488 0.528551 0.186289
58 1 0.315664 0.57411 0.264284
19 1 0.976472 0.575012 0.151932
88 1 0.616131 0.729281 0.189237
26 1 0.238476 0.974037 0.233084
32 1 0.618127 0.338318 0.299221
54 1 0.738294 0.220405 0.355448
66 1 0.283212 0.432288 0.375739
15 1 0.727693 0.0902014 0.373705
21 1 0.330427 0.139707 0.390866
73 1 0.851971 0.263992 0.412142
9 1 0.840545 0.764509 0.441272
77 1 0.331192 0.648901 0.401126
70 1 0.664851 0.808015 0.483846
34 1 0.886472 0.880907 0.474607
83 1 0.336475 0.837115 0.484983
51 1 0.89156 0.901091 0.533566
33 1 0.545821 0.558861 0.459243
96 1 0.131835 0.0173642 0.487154
63 1 0.0618899 0.391818 0.560701
29 1 0.701543 0.52227 0.521631
79 1 0.626196 0.730942 0.622652
37 1 0.317863 0.325789 0.584343
81 1 0.781914 0.459578 0.58833
1 1 0.930223 0.554616 0.619222
85 1 0.751739 0.631053 0.564318
48 1 0.890055 0.89445 0.638792
38 1 0.175132 0.07224 0.682307
44 1 0.774333 0.213977 0.624657
49 1 0.668592 0.266218 0.595964
56 1 0.651058 0.623413 0.618697
68 1 0.660441 0.963431 0.623153
31 1 0.721218 0.959888 0.582561
98 1 0.876421 0.0605252 0.697857
75 1 0.534723 0.132937 0.646006
47 1 0.892475 0.613993 0.70464
40 1 0.255106 0.407434 0.6692
64 1 0.0241233 0.391437 0.690036
24 1 0.119765 0.95644 0.756383
8 1 0.767087 0.25428 0.701839
3 1 0.324104 0.47719 0.702612
72 1 0.368571 0.4856 0.699156
42 1 0.479153 0.742649 0.684974
89 1 0.825321 0.818271 0.768097
12 1 0.392283 0.848077 0.758965
46 1 0.317118 0.98857 0.75525
14 1 0.688147 0.567699 0.706526
28 1 0.731371 0.578642 0.763419
30 1 0.948873 0.565373 0.704326
86 1 0.423434 0.260015 0.788266
43 1 0.203442 0.683308 0.811804
94 1 0.453758 0.651389 0.803892
67 1 0.730125 0.729831 0.811755
41 1 0.774157 0.923647 0.768141
50 1 0.147314 0.121959 0.807696
93 1 0.0479891 0.435168 0.862654
95 1 0.539646 0.017926 0.871395
22 1 0.526551 0.0312212 0.840397
57 1 0.445713 0.16425 0.886766
78 1 0.520567 0.456587 0.806769
52 1 0.641347 0.605058 0.936281
53 1 0.168506 0.494813 0.910106
13 1 0.121282 0.588087 0.89713
36 1 0.637254 0.763205 0.907463
62 1 0.36922 0.875206 0.929911
100 1 0.656917 0.376144 0.913373
92 1 0.514286 0.809097 0.896208
65 1 0.170905 0.00999955 0.962783
84 1 0.932325 0.307777 0.0172522
11 1 0.054412 0.422034 0.00341546
17 1 0.00659722 0.558076 0.0061433
4 1 0.31273 0.502544 0.945713
91 1 0.621574 0.578178 0.995204
74 1 0.476023 0.629527 0.945083
55 1 0.0275389 0.835849 0.999738
10 1 0.69846 0.85803 0.995486
ITEM: TIMESTEP
900
ITEM: NUMBER OF ATOMS
100
ITEM: BOX BOUNDS pp pp pp
-2.0000000000000000e+01 2.0000000000000000e+01
-2.0000000000000000e+01 2.0000000000000000e+01
-2.0000000000000000e+01 2.0000000000000000e+01
ITEM: ATOMS id type xs ys zs
2 1 0.971149 0.10804 0.0467011
90 1 0.0964832 0.506694 0.0296261
99 1 0.739551 0.503652 0.0138836
39 1 0.568946 0.815672 0.0243811
61 1 0.859569 0.459787 0.0759778
71 1 0.791877 0.535017 0.0344171
80 1 0.335408 0.61098 0.0792872
35 1 0.987167 0.962918 0.0075047
45 1 0.22959 0.434346 0.116526
76 1 0.89867 0.61753 0.0402867
69 1 0.530575 0.32244 0.162953
27 1 0.558282 0.322462 0.157819
5 1 0.223467 0.531384 0.138006
16 1 0.654058 0.701916 0.154276
59 1 0.359689 0.34554 0.138358
60 1 0.749719 0.318144 0.21017
82 1 0.765101 0.6648 0.196079
18 1 0.0221399 0.6959 0.117007
87 1 0.625913 0.906977 0.191468
97 1 0.91242 0.325177 0.17681
20 1 0.0559865 0.563198 0.229001
23 1 0.0109971 0.695659 0.141354
6 1 0.766356 0.923754 0.180673
7 1 0.792411 0.366083 0.243338
25 1 0.47408 0.526706 0.193949
58 1 0.313527 0.57553 0.264598
19 1 0.987262 0.581152 0.137782
88 1 0.612536 0.733674 0.186625
26 1 0.248646 0.962664 0.231239
32 1 0.635919 0.339482 0.299304
54 1 0.757919 0.226246 0.363746
66 1 0.286111 0.423657 0.390017
15 1 0.721106 0.0788417 0.377285
21 1 0.323827 0.132893 0.403239
73 1 0.843811 0.255913 0.41957
9 1 0.848007 0.783154 0.430072
77 1 0.339102 0.650914 0.395264
70 1 0.666026 0.828123 0.476496
34 1 0.87611 0.866761 0.491781
83 1 0.319141 0.84485 0.483701
51 1 0.900043 0.892701 0.531185
33 1 0.546409 0.552136 0.478195
96 1 0.143721 0.0209094 0.469399
63 1 0.0615879 0.404472 0.557096
29 1 0.715767 0.544201 0.51231
79 1 0.621618 0.737391 0.621307
37 1 0.31572 0.330404 0.58265
81 1 0.798665 0.464571 0.581609
1 1 0.929725 0.566761 0.630928
85 1 0.755859 0.639397 0.5862
48 1 0.900327 0.887431 0.649419
38 1 0.166266 0.0652197 0.676687
44 1 0.783601 0.211011 0.635265
49 1 0.675452 0.250591 0.587082
56 1 0.675172 0.618499 0.612849
68 1 0.657248 0.956481 0.625631
31 1 0.726481 0.948682 0.586213
98 1 0.87356 0.0576262 0.695195
75 1 0.537235 0.140531 0.652652
47 1 0.904768 0.631202 0.709636
40 1 0.247137 0.412875 0.661981
64 1 0.0228461 0.384681 0.683566
24 1 0.133827 0.949459 0.748163
8 1 0.752075 0.258489 0.697305
3 1 0.322726 0.471167 0.706449
72 1 0.403819 0.476505 0.678958
42 1 0.482738 0.757997 0.662488
89 1 0.802967 0.815818 0.759027
12 1 0.405779 0.857028 0.742041
46 1 0.316558 0.998004 0.744866
14 1 0.694258 0.577769 0.734953
28 1 0.72401 0.566603 0.754696